Question,Teacher Response,Student Response,BLEU Score,ROUGE Score
What is the capital of France?,"<think>

</think>

The capital of France is Paris.",The capital of France is Paris.,0.7165313105737893,0.8571428522448981
Who wrote '1984'?,"<think>

</think>

""1984"" is a book written by George Orwell. It was first published in 1949 and has since become a globally recognized work of literature. The novel is known for its exploration of themes such as surveillance, propaganda, and the dangers of totalitarianism.","The classic dystopian novel ""1984"" was written by George Orwell. The book was published in 1949 and has since become a classic of science fiction and a warning about the dangers of totalitarianism.",0.2767015643879872,0.6363636315289257
What is the square root of 64?,"<think>
To find the square root of 64, I need to determine which number multiplied by itself equals 64.

I know that \(8 \times 8 = 64\), so the principal square root of 64 is 8. Since square roots can also be negative and still satisfy the equation when squared, -8 is also a valid solution.

Therefore, both 8 and -8 are the numbers whose squares equal 64.
</think>

To find the **square root** of 64, we need to determine which number multiplied by itself equals 64.

Let's denote the square root as \( x \). Therefore:

\[
x^2 = 64
\]

Taking the square root on both sides gives two possible solutions because a positive number has both a positive and negative square root:

\[
x = \sqrt{64} \quad \text{or} \quad x = -\sqrt{64}
\]

Calculating the roots:

\[
\sqrt{64} = 8
\]
\[
-\sqrt{64} = -8
\]

Thus, both **8** and **-8** are square roots of 64 because:

\[
8^2 = 64 \quad \text{and} \quad (-8)^2 = 64
\]

Therefore, the square roots of 64 are:

\[
\boxed{\pm 8}
\]",The square root of 64 is 8. This is because 8 multiplied by itself equals 64 (8 * 8 = 64).,0.00018438838327123765,0.21818181556859503
When was Python first released?,"<think>

</think>

Python was first released in 1991 by the British computer company CLEAR soften, later renamed to Python Inc. However, the official release of Python 1.0 was on June 23, 1991, making that the date when Python made its debut.",Python was first released in 1991 by Guido van Rossum.,0.02878387722115844,0.30434782268431004
What is the boiling point of water?,"<think>

</think>

The boiling point of water is **100°C** (212°F) at standard atmospheric pressure.","The boiling point of water is 212°F (100°C) at standard atmospheric pressure. However, it's worth noting that the boiling point can vary depending on factors such as altitude and pressure.

At higher altitudes, the air pressure is lower, which means that the boiling point of water will be lower than 212°F (100°C). For example, at sea level, the boiling point is 212°F (100°C), but at an elevation of 5,000 feet, it's around 203°F (95°C).

Additionally, the boiling point can also vary depending on the purity of the water and the presence of impurities. In general, pure water will boil at a consistent temperature of 212°F (100°C) under standard conditions.

It's also worth noting that the boiling point can change slightly when water is heated rapidly or in the presence of certain gases. However, for most practical purposes, the boiling point of water is considered to be 212°F (100°C).",0.045185628785990445,0.2105263132764543
Who painted the Mona Lisa?,"<think>

</think>

The Mona Lisa was painted by the Italian artist Leonardo da Vinci. It is one of the most famous works of art in the world and was acquired by the Louvre Museum in Paris, France, through the efforts of巧克力and chocolate expert Jacques Delors, who served as the French Consul General in Venice at the time.",The Mona Lisa was painted by the Italian artist Leonardo da Vinci.,0.023517745856009107,0.41379310016646853
What is the largest planet in our solar system?,"<think>

</think>

The largest planet in our solar system is Jupiter.","The largest planet in our solar system is Jupiter. It is a gas giant, with a diameter of approximately 142,984 kilometers (88,846 miles). This is more than 11 times the diameter of Earth, making it the largest of all the planets in terms of both mass and size.",0.15952108192798922,0.374999996467014
How many continents are there on Earth?,"<think>
Okay, so I need to figure out how many continents there are on Earth. Let me start by thinking about what I know. Continents are large landmasses that cover most of the Earth's surface, right? But wait, isn't there something about countries being part of continents even if they're not connected?

Hmm, I remember that Europe and Asia are considered one continent because they're mostly connected at their northern borders. Similarly, Africa is kind of a big one with many countries in it. Australia is also an island continent, so it's its own. Now, thinking about the other seven, I know North America has the United States, Canada, Mexico, etc., South America with Brazil and Argentina, Antarctica being its own continent, and then Africa, Europe, Asia, Australia, and now wait, have I counted all? Let me list them out:

1. Africa
2. Antarctica
3. Asia
4. Europe
5. North America
6. South America
7. Australia

Wait, so that's seven continents in total. But sometimes people debate whether a peninsula like Taiwan is part of Asia or its own country. Taiwan isn't recognized as an independent country by all countries, so I think most agree it's part of Asia.

Also, regarding the Americas being split into North and South America for separate continents, each has their own continent status. So yeah, adding up to seven.
</think>

There are seven continents on Earth:

1. Africa
2. Antarctica
3. Asia
4. Europe
5. North America
6. South America
7. Australia

These seven continents cover the entire Earth except for the polar regions and certain areas of water such as the Arctic Ocean, Southern Ocean, and theredd sea, which are not considered continents.","There are 7 continents on Earth:

1. Africa
2. Antarctica
3. Asia
4. Australia
5. Europe
6. North America
7. South America",4.3842109481412036e-06,0.21621621428780138
What is the chemical symbol for gold?,"<think>
Okay, so I need to find the chemical symbol for gold. Hmm, I remember that chemical symbols are based on elements' names, right? Let's see... Gold starts with a 'G', so maybe something like Ag or Au?

I think gold has been used in jewelry and coins for ages because it's very valuable. But wait, isn't there another element that starts with 'G'? Maybe I'm confusing it with germanium or something else. Germanium does have the symbol Ge, but that's not gold.

Gold also sounds familiar in other contexts, like in video games sometimes uses ""Au"" as a currency joke because it's hard to trace. So maybe Au is correct? I can't think of any other element starting with 'Au' besides gold. Yes, I'm pretty sure the symbol for gold is Au.
</think>

The chemical symbol for gold is Au.

**Step-by-Step Explanation:**

1. **Understand the Request:** The user is asking for the chemical symbol associated with the element gold.

2. **Recall Chemical Symbols:** Chemical symbols typically start with one or two letters derived from the element's name, often the first letter of its Latin name if the initial letter doesn't form a valid abbreviation.

3. **Think About Gold:** Gold (Latin: Aurum) has been historically significant due to its high value and uses in jewelry.

4. **Consider Possible Confusions:** While other elements may have similar-sounding symbols, such as Germanium (Ge), the symbol for gold is specifically Au.

5. **Confirm the Answer:** Gold's symbol is indeed Au, commonly recognized in scientific contexts.

**Answer:** The chemical symbol for gold is Au.","The chemical symbol for gold is Au. It comes from the Latin word ""aurum.""",1.2337218198332412e-08,0.11111110958333334
Who discovered gravity?,"<think>

</think>

Gravity was not discovered by a single individual, but the understanding and mathematical description of gravitational force is attributed to Sir Isaac Newton. In his 1687 work *Philosophiæ Naturalis Principia Mathematica* (commonly referred to as the ""Principia""), Newton formulated the law of universal gravitation, which states that every particle attracts every other particle with a force proportional to the product of their masses and inversely proportional to the square of the distance between their centers. This laid the foundation for classical mechanics and our understanding of gravity.

However, the concept of gravity was earlier pondered by ancient philosophers such as Aristotle, who proposed that objects fall toward the Earth due to an inherent property called ""gravity."" The modern scientific understanding and mathematical formulation of gravity came from Newton, while Albert Einstein's theory of general relativity (proposed in 1915) provided a more comprehensive explanation, describing gravity not as a force, but as the curvature of spacetime caused by mass and energy.

So, while Isaac Newton is credited with the mathematical formulation and description of gravitational force, the concept of gravity itself was known and discussed earlier in various forms.","While Sir Isaac Newton is often credited with the discovery of gravity, the concept of gravity has been understood and described by scientists and philosophers for thousands of years.

Some of the earliest recorded descriptions of gravity can be found in ancient Greek philosophy, particularly in the works of:

1. Aristotle (384-322 BCE): Aristotle believed that objects tend to move towards their natural place, which was influenced by gravity.
2. Epicurus (341-270 BCE): Epicurus argued that objects are attracted to each other due to a natural tendency.

In terms of scientific discovery, some notable milestones include:

1. Galileo Galilei (1564-1642 CE): Galileo conducted experiments on falling objects and observed the acceleration of gravity, demonstrating that the force of gravity acts equally on all objects regardless of their mass or composition.
2. Johannes Kepler (1571-1630 CE): Kepler discovered the three laws of planetary motion, which described how planets move in relation to the Sun and explained the effects of gravity on celestial bodies.

Sir Isaac Newton, however, is credited with formulating the Law of Universal Gravitation, which states that every point mass attracts every other point mass by a force acting along the line intersecting both points. This law was published in his book ""Philosophiæ Naturalis Principia Mathematica"" in 1687.

So while Newton didn't discover gravity itself, he did develop our modern understanding of it and its role in the natural world.",0.05968402856549091,0.2941176421196476
What is the capital of France?,"<think>

</think>

The capital of France is Paris.",The capital of France is Paris.,0.7165313105737893,0.8571428522448981
Who wrote '1984'?,"<think>

</think>

The novel ""1984"" was written by George Orwell. It is a classic work of political allegory that explores themes of totalitarianism, privacy, and the manipulation of truth. The story is set in a dystopian future where the government controls not only the means of communication but also the very fabric of reality through censorship and propaganda.","The novel ""1984"" was written by George Orwell.",0.0019304541362277093,0.2909090884231405
What is the square root of 64?,"<think>

</think>

The square root of 64 is 8, because \( 8 \times 8 = 64 \).","The square root of 64 is 8. This is because 8 x 8 = 64, and -8 x -8 also equals 64 (since (-8)² = (-8)^2), so there are two solutions to this equation: √64 = ±8 or √64 = ∓8",0.13435637642994447,0.3913043434310019
When was Python first released?,"<think>

</think>

Python was first released on December 3, 1991. The initial release was Python 0.9.0, followed by Python 1.0 in March 1994. Over the years, it has gone through numerous updates and versions, with the current version as of my knowledge cutoff in October 2023 being Python 3.10.6.","Python was first released in 1991 by Guido van Rossum. He began working on the language in the late 1980s and released the first version, Python 0.9.1, in February 1991.",0.05539367986377906,0.30985915045427503
What is the boiling point of water?,"<think>

</think>

The boiling point of water at standard atmospheric pressure (1 atmosphere) is 100°C.","The boiling point of water varies depending on atmospheric pressure. At standard atmospheric pressure (1 atm or 101.325 kPa), the boiling point of pure water is 100°C (212°F) at sea level.

However, as you go higher in elevation, the boiling point of water decreases due to lower atmospheric pressure. Conversely, at higher elevations, the boiling point increases.

Here are some general guidelines for the boiling point of water at different altitudes:

* Sea level: 100°C (212°F)
* Low elevation (e.g., 500 ft/152 m): 99.6°C (205°F)
* Medium elevation (e.g., 2,000 ft/610 m): 97.4°C (198.7°F)
* High elevation (e.g., 8,000 ft/2,438 m): 89.4°C (187°F)

Keep in mind that these values are approximate and can vary depending on the specific location and atmospheric conditions.",0.0562606993482751,0.23762375984707382
Who painted the Mona Lisa?,"<think>

</think>

The Mona Lisa was painted by Leonardo da Vinci. It is one of the most famous artworks in the world and is held at the Louvre Museum in Paris, France.","The Mona Lisa was painted by the renowned Italian artist Leonardo da Vinci. He created the painting in the early 16th century, specifically between 1503 and 1506, during the Renaissance period. The Mona Lisa is widely considered one of the most famous paintings in the world, known for its enigmatic smile and exceptional detail.",0.18858494566078707,0.4722222174691358
What is the largest planet in our solar system?,"<think>
Okay, so I need to figure out what the largest planet in our solar system is. Hmm, let's start by thinking about the planets we know. There are eight main ones: Mercury, Venus, Earth, Mars, Jupiter, Saturn, Uranus, and Neptune. But wait, I remember hearing something about a ninth planet, called Pluto, but now it doesn't classify as a planet anymore. Okay, so ignoring Pluto for now.

I think Jupiter is the largest because I've heard people say ""Jupiter is the biggest planet."" But why is that? Let me break it down. The planets are ordered by size from the Sun outward: Mercury, Venus, Earth, Mars, then the gas giants—Jupiter, Saturn, Uranus, Neptune. So gas giants are much larger than the rocky ones.

But how do they compare in terms of mass and diameter? I think Jupiter is much bigger than Earth. Let me recall some numbers. Jupiter's radius is about 11 times that of Earth's. So if Earth is roughly 6,400 km in diameter, Jupiter would be around 138,900 km in diameter. That sounds right.

Wait, what about Saturn? I think Saturn has a larger diameter than Jupiter? Or maybe not because it has less mass but similar size due to its atmosphere being denser? No, wait, no—the volume is more for Jupiter. So actually, by mass, Jupiter is much bigger, but perhaps in terms of size (diameter), it might be close or even smaller? Wait, I'm a bit confused now.

No, actually, the radius of Jupiter is about 11 times Earth's. Saturn's radius is about 9 times Earth's, so its diameter would be roughly similar to Jupiter's but maybe not as large. Wait, no—Saturn's actual diameter is smaller than Jupiter's because while it has a larger circumference in terms of volume due to more rings and layers, its physical size might actually make Jupiter the bigger one.

So that must mean Jupiter is indeed the largest planet by far, both in mass and diameter.

Let me think about other planets too. Neptune is often called the ""ice giant,"" so it's big, but not as much as Jupiter. Saturn has a lot of rings because of its gassy composition, which makes it large in volume but maybe not bigger than Jupiter physically.

So yeah, after checking all that, I'm pretty confident that Jupiter is the largest planet in our solar system.
</think>

The largest planet in our solar system is Jupiter. It stands out due to its immense size and mass. With a radius approximately 11 times that of Earth's, it holds the title as the most substantial planet both in terms of diameter and overall volume within our solar system.

**Answer:** Jupiter is the largest planet in our solar system.","The largest planet in our solar system is Jupiter. It is a gas giant and is approximately 142,984 kilometers (88,846 miles) in diameter, which is more than 11 times the diameter of the Earth.",1.6172414521174784e-06,0.1932773087843373
How many continents are there on Earth?,"<think>

</think>

There are **7 continents** on Earth. They are:

1. Asia
2. Africa
3. North America
4. South America
5. Antarctica
6. Europe
7. Australia (Oceania)","There are 7 continents on Earth:

1. Africa
2. Antarctica
3. Asia
4. Australia/Oceania
5. Europe
6. North America
7. South America",0.03336481764567043,0.739130429867675
What is the chemical symbol for gold?,"<think>

</think>

The chemical symbol for gold is **Au**.","The chemical symbol for gold is Au. It comes from the Latin word ""Aurum,"" which means gold.",0.28175950490399515,0.47999999539200017
Who discovered gravity?,"<think>

</think>

Gravity was not ""discovered"" in the sense that a single individual created it, but it was understood and described by Sir Isaac Newton. In his work *Principia Mathematica* (1687), Newton formulated the law of universal gravitation, which mathematically describes the force of gravity between two objects. However, the concept of gravity itself was further developed by Albert Einstein in his theory of general relativity (1915), which provided a more comprehensive understanding of gravity as the curvature of spacetime caused by mass and energy.

So while Newton laid the mathematical foundation for gravity, Einstein expanded our understanding of it within the framework of modern physics.","Gravity has been studied and understood for thousands of years, with various cultures contributing to its understanding. While it's difficult to attribute the discovery of gravity to a single person, I can give you an overview of some key milestones.

The ancient Greeks were among the first to propose theories about gravity. Here are a few notable examples:

1. Aristotle (384-322 BCE): Aristotle believed that objects tend to stay in their place and that heavy objects pull lighter ones towards them.
2. Epicurus (341-270 BCE) and Lucretius (99-55 BCE): They proposed the idea of an invisible, weightless substance called ""atom"" or ""vacuum"" that could be displaced by gravity.

The modern understanding of gravity began to take shape in the 17th century:

1. Galileo Galilei (1564-1642 CE): Galileo studied the motion of objects on Earth and in the air, challenging Aristotelian ideas about gravity. He demonstrated that falling bodies accelerate towards the ground at a constant rate.
2. Johannes Kepler (1571-1630 CE): Kepler discovered the laws of planetary motion, which described the paths of planets around the Sun. His work laid the foundation for Sir Isaac Newton's law of universal gravitation.

Finally, Sir Isaac Newton (1643-1727 CE) is often credited with developing the first comprehensive theory of gravity:

1. Newton's Law of Universal Gravitation (1687): Newton's groundbreaking work described the force of gravity as a universal, reciprocal interaction between masses. This theory explained how planets orbit around the Sun and the motion of objects on Earth.

Since then, many scientists have built upon Newton's discovery, making significant contributions to our understanding of gravity:

1. Albert Einstein (1879-1955 CE): Einstein's theory of general relativity revolutionized our understanding of gravity as a curvature of spacetime caused by massive objects.
2. Georges Lemaitre (1894-1970 CE) and Edwin Hubble (1889-1953 CE): They proposed the Big Bang theory, which suggests that gravity played a crucial role in the formation and evolution of the universe.

Gravity has been extensively studied by many scientists across various disciplines, and while we can't pinpoint a single ""discoverer"" of gravity, Newton's law remains one of the most influential theories about gravity ever developed.",0.048256474735962875,0.25762711478632583
What is the capital of France?,"<think>

</think>

The capital of France is Paris.",The capital of France is Paris.,0.7165313105737893,0.8571428522448981
Who wrote '1984'?,"<think>

</think>

""1984"" is a book written by the British author George Orwell. The novel was first published in 1948 and is a landmark work of literature, particularly for its exploration of themes such as totalitarianism, government control, and the erosion of individual freedom.","The novel ""1984"" was written by George Orwell. It was first published in 1949 and has since become a classic of dystopian literature, exploring themes of government control, censorship, and the dangers of totalitarianism.",0.09937470729201087,0.558823524480969
What is the square root of 64?,"<think>

</think>

The square root of a number \( x \) is a number \( y \) such that \( y^2 = x \). For \( x = 64 \), we need to find \( y \) such that:

\[
y^2 = 64
\]

Taking the positive square root, we have:

\[
y = \sqrt{64} = 8
\]

Thus, the number is **8**.","The square root of 64 is 8, because 8 multiplied by itself (8 * 8) equals 64.",0.01100184439877102,0.19230768804733736
When was Python first released?,"<think>

</think>

Python was first released on December 3, 1989.",Python was first released in 1991 by Guido van Rossum.,0.2626909894424158,0.3999999950000001
What is the boiling point of water?,"<think>

</think>

The boiling point of water is **100°C (212°F)** at standard atmospheric pressure. This occurs when the vapor pressure of water equals the surrounding atmospheric pressure, allowing bubbles of steam to form inside the liquid.","The boiling point of water is 212°F (100°C) at standard atmospheric pressure (1 atmosphere or 101.325 kPa). However, it's worth noting that the boiling point can vary depending on factors such as altitude, pressure, and the presence of impurities in the water.

At higher elevations, the boiling point of water decreases due to lower atmospheric pressure. For example:

* At sea level (0 m): 212°F (100°C)
* At 1,000 feet (305 meters): 201.5°F (94°C)
* At 5,000 feet (1,524 meters): 186.6°F (85.3°C)

Conversely, at higher pressures or with the addition of certain substances, the boiling point of water can increase.

Keep in mind that these values are approximate and may vary depending on the specific conditions.",0.06295875914787866,0.23853210618634801
Who painted the Mona Lisa?,"<think>

</think>

The Mona Lisa was painted by Leonardo da Vinci. It is one of the most famous works of art in the world and belongs to the Louvre Museum in Paris, France.","The Mona Lisa was painted by Leonardo da Vinci, an Italian artist and polymath, in the early 16th century, specifically between 1503 and 1506. However, some art historians believe that he may have continued working on the painting until as late as 1517.

Da Vinci's use of sfumato, a painting technique that creates a soft, hazy effect by layering thin glazes of paint, is particularly notable in the Mona Lisa. The painting is also famous for its enigmatic smile and intricate details, which are considered to be some of the most iconic elements of Renaissance art.

The Mona Lisa is now widely considered to be one of the greatest paintings of all time, and it is seen by millions of people each year at the Louvre Museum in Paris, where it has been on display since 1797.",0.09620684831560365,0.29921259490110985
What is the largest planet in our solar system?,"<think>

</think>

The largest planet in our solar system is Jupiter.","The largest planet in our solar system is Jupiter. It has a diameter of approximately 142,984 kilometers (88,846 miles), which is more than 11 times the diameter of Earth.",0.2698809072033866,0.48648648230825425
How many continents are there on Earth?,"<think>
Okay, so I need to figure out how many continents there are on Earth. Hmm, let's see... I remember learning in school that the number of continents is kind of tricky because it depends on where you're defining a continent. The big five—the continents I know for sure are Asia, Africa, Europe, Australia (which used to be called Zealand), North America, and South America. That makes six.

But wait, aren't there more? Oh right! There's also the Arctic and Antarctic regions sometimes referred to as continents, but they're actually ungrouped because they don't meet all the criteria for a continent. They lack sufficient landmass, ocean isolation, and tectonic activity compared to the others. So if we include those, that would make eight.

Oh, so depending on whether you consider Arctic and Antarctic as continents or not, the number can change between six and eight. I think some definitions require that continents have to be surrounded by ocean on all sides, enough land area, and certain geological features like mountain ranges. So based on that, if we only count those with a substantial landmass and meet the other criteria, there are seven: Asia, Africa, Europe, North America, South America, Australia, and Antarctica.

But then some sources include the Arctic as a separate entity since it's an ice continent. If we count both the Arctic and Antarctic along with the usual seven, that makes nine. But I don't think that's standard because the polar regions aren't technically continents; they're more like ungrouped landmasses within the ocean basins.

So maybe the correct answer is between six to eight depending on the definition used. The commonly accepted number when excluding the Arctic and Antarctic is seven, but including them would be nine if treated as separate entities.
</think>

The number of continents recognized on Earth depends on the definition used:

- **Seven Continents**: Asia, Africa, Europe, North America, South America, Australia, and Antarctica (labeled as a continent in some definitions).
  
  This is when polar regions are not considered continents.

- **Eight Continents**: Including the Arctic and Antarctic as separate entities if they meet certain criteria. However, this is less common as these regions are more like ungrouped landmasses within ocean basins.

Thus, generally, there are seven recognized continents.","There is some debate about the number of continents, but the most widely accepted definition is that there are 7 continents:

1. Africa
2. Antarctica
3. Asia
4. Australia
5. Europe
6. North America
7. South America

Some sources may group Europe and Asia together as a single continent, Eurasia, or combine North and South America as the American continent. However, the 7-continent model is the most commonly accepted classification.

It's worth noting that the concept of continents has evolved over time, and different cultures have had their own definitions of what constitutes a continent. But in modern geography, the 7-continent model is the standard one used by most organizations and educational institutions.",0.0023815936687063693,0.19999999585816336
What is the chemical symbol for gold?,"<think>
Okay, so I need to find out what the chemical symbol for gold is. I remember from school that every element has a specific symbol, which is usually made up of one or two letters. Since ""gold"" starts with a 'G,' maybe the symbol is something like Ga or Gd? Hmm, no, wait. There are elements named after countries too. For example, I think cobalt is Co and gold might be Au since ""Au"" sounds like ""Aurora."" Let me try to recall if that's correct.

I'm pretty sure the chemical symbols for transition metals often have a 'Cu' for copper because it comes from ""cuprum."" Silver would then be Ag, as in ""argentum."" Following that logic, gold being next might indeed be Au. Also, I think gold has a higher atomic number than silver, so if silver is Ag, gold should come after that, hence Au makes sense.

Another way to remember is by the origin of these symbols. For instance, chlorine was from ""chlorosulphite"" in Greek, but that's probably not relevant here. Alternatively, I might confuse it with another element like sodium (Na) or potassium (K), which are more straightforward single letters. But gold is definitely a two-letter symbol because 'G' only stands for itself otherwise.

Wait, could there be any other possibility? Could it be Ge instead of Au? No, because Ge is germanium, which comes after germanium in the periodic table. So that wouldn't fit. Or maybe Ag before Au? Yes, silver is indeed Ag and gold comes right after as Au.
</think>

The chemical symbol for gold is **Au**.","The chemical symbol for gold is Au. It comes from the Latin word ""Aurum.""",7.30992950729496e-09,0.11702127512732005
Who discovered gravity?,"<think>
Okay, so I need to figure out who discovered gravity. Hmm, I remember hearing something about Isaac Newton and gravity from school. Was he the one? Let me think back.

I recall that Sir Isaac Newton was a British scientist, right? He lived in the 17th and 18th centuries. He made contributions to physics, mathematics, and astronomy. Yeah, so he worked on a lot of fundamental concepts. One of his big findings was gravity.

But wait, isn't there also someone else involved? Oh, wasn't there an apple story about how he saw an apple fall from a tree and that made him think about gravity? That's the famous anecdote. So maybe it was Newton who discovered it through observation when seeing an apple drop.

Wait, but does that mean he actually discovered it or just associated it with gravity? I think he developed the theory of universal gravitation based on his observations. He came up with the idea that not only did the apple fall to the ground but also the Moon was orbiting the Earth due to the same force. That's how he connected the motion of celestial bodies with the force we experience on Earth.

So, putting it all together: Isaac Newton discovered gravity through observation and experimentation, formulating the law of universal gravitation which explains how all objects are attracted to each other due to mass.
</think>

Isaac Newton is credited with discovering gravity. His pivotal insight came from observing an apple fall from a tree, leading him to formulate his theory of universal gravitation. This theory explains that every object in the universe attracts every other object with a force proportional to their masses and inversely proportional to the square of the distance between their centers. Newton's work not only explained the fall of an apple but also accounted for the Moon's orbit and other celestial motions, establishing gravity as a fundamental force.","Gravity was not exactly ""discovered"" by a single person, but rather it was understood and described by scientists over time. The concept of gravity has been studied and explored since ancient civilizations.

One of the earliest recorded philosophers to discuss the nature of gravity was Aristotle (384-322 BCE), who believed that objects tend to move towards their natural place.

However, it wasn't until Sir Isaac Newton's work in the 17th century that gravity was truly understood as a fundamental force of nature. In his groundbreaking book ""Philosophiæ Naturalis Principia Mathematica"" (Mathematical Principles of Natural Philosophy), published in 1687, Newton formulated the law of universal gravitation, which describes how gravity affects objects.

Newton's law states that every point mass attracts every other point mass by a force acting along the line intersecting both points. This concept revolutionized our understanding of the natural world and had far-reaching implications for astronomy, physics, and mathematics.

Galileo Galilei (1564-1642) also made significant contributions to the study of gravity, although his work predated Newton's. Galilei was one of the first scientists to challenge Aristotle's ideas about motion and gravity, and he conducted experiments that demonstrated the role of inertia in falling objects.

Albert Einstein (1879-1955) further refined our understanding of gravity with his theory of general relativity, published in 1915. According to this theory, gravity is not a force acting between objects but rather a curvature of spacetime caused by mass and energy.

In summary, while it's difficult to attribute the ""discovery"" of gravity to a single person, Sir Isaac Newton is widely recognized for his groundbreaking work on the law of universal gravitation, which transformed our understanding of the natural world.",0.036620769144397734,0.28486646384488734
